# vtk DataFile Version 3.0
MOAB 5.0.1
ASCII
DATASET UNSTRUCTURED_GRID
POINTS 74 double
0 0 0
0.5 0 0
1 0 0
1 1 0
0.5 1 0
0 1 0
0 0.8571428571 0
0 0.7142857143 0
0 0.5714285714 0
0 0.4285714286 0
0 0.2857142857 0
0 0.1428571429 0
0.1666666667 0 0
0.3333333333 0 0
0.5 0.1428571429 0
0.5 0.2857142857 0
0.5 0.4285714286 0
0.5 0.5714285714 0
0.5 0.7142857143 0
0.5 0.8571428571 0
0.3333333333 1 0
0.1666666667 1 0
0.6666666667 0 0
0.8333333333 0 0
1 0.1428571429 0
1 0.2857142857 0
1 0.4285714286 0
1 0.5714285714 0
1 0.7142857143 0
1 0.8571428571 0
0.8333333333 1 0
0.6666666667 1 0
0.2555388152 0.6853311265 0
0.2460437035 0.3791197389 0
0.1968654633 0.7818243058 0
0.3033982898 0.2289175051 0
0.1209392567 0.4865611069 0
0.3777419778 0.4865611069 0
0.355168598 0.781562368 0
0.1418264346 0.23084021 0
0.1199173813 0.6462615584 0
0.3730748985 0.6299026316 0
0.1054858902 0.3607274978 0
0.3914305028 0.3371949632 0
0.2583092501 0.892435783 0
0.2412338808 0.1114216152 0
0.3913185512 0.893399241 0
0.1089891174 0.1039258319 0
0.1167403891 0.8861862053 0
0.3832274249 0.1162469962 0
0.08273549125 0.7813397155 0
0.4213990457 0.2142857143 0
0.2488760055 0.5522895448 0
0.7444611848 0.3146688735 0
0.7460437035 0.6208802611 0
0.8033982898 0.7710824949 0
0.8031345367 0.2181756942 0
0.6209392567 0.5134388931 0
0.8777419778 0.5134388931 0
0.644831402 0.218437632 0
0.6418264346 0.76915979 0
0.6267053073 0.3700973684 0
0.8800139616 0.3537384416 0
0.6054858902 0.6392725022 0
0.8914305028 0.6628050368 0
0.7416907499 0.107564217 0
0.7412338808 0.8885783848 0
0.6086814488 0.106600759 0
0.6089891174 0.8960741681 0
0.8832274249 0.8837530038 0
0.8832596109 0.1138137947 0
0.9213990457 0.7857142857 0
0.9172575029 0.2186602845 0
0.7493175653 0.4477104552 0
CELLS 313 1059
2 5 6
2 6 7
2 7 8
2 8 9
2 9 10
2 10 11
2 11 0
2 0 12
2 12 13
2 13 1
2 4 20
2 20 21
2 21 5
2 1 22
2 22 23
2 23 2
2 2 24
2 24 25
2 25 26
2 26 27
2 27 28
2 28 29
2 29 3
2 3 30
2 30 31
2 31 4
2 12 47
2 47 0
2 47 11
2 1 49
2 49 13
2 1 14
2 14 49
2 22 67
2 67 1
2 67 14
2 2 70
2 70 23
2 24 70
2 30 69
2 69 3
2 69 29
2 20 46
2 46 4
2 46 19
2 19 4
2 4 68
2 68 31
2 19 68
2 5 48
2 48 21
2 6 48
2 7 50
2 50 6
2 50 48
2 8 40
2 40 7
2 40 50
2 9 36
2 36 8
2 36 40
2 9 42
2 42 36
2 10 42
2 11 39
2 39 10
2 39 42
2 47 39
2 13 45
2 45 12
2 45 47
2 49 45
2 14 15
2 15 51
2 51 14
2 51 49
2 14 59
2 59 15
2 67 59
2 15 16
2 16 43
2 43 15
2 43 51
2 59 61
2 61 15
2 61 16
2 16 17
2 17 37
2 37 16
2 37 43
2 16 57
2 57 17
2 61 57
2 17 41
2 41 37
2 17 18
2 18 41
2 57 63
2 63 17
2 63 18
2 18 19
2 19 38
2 38 18
2 38 41
2 18 60
2 60 19
2 63 60
2 46 38
2 60 68
2 21 44
2 44 20
2 44 46
2 48 44
2 23 65
2 65 22
2 65 67
2 70 65
2 25 72
2 72 24
2 72 70
2 26 62
2 62 25
2 62 72
2 27 58
2 58 26
2 58 62
2 27 64
2 64 58
2 28 64
2 28 71
2 71 64
2 29 71
2 69 71
2 30 66
2 66 69
2 31 66
2 68 66
2 32 38
2 38 34
2 34 32
2 34 40
2 40 32
2 32 41
2 40 52
2 52 32
2 52 41
2 33 39
2 39 35
2 35 33
2 35 43
2 43 33
2 33 52
2 52 36
2 36 33
2 33 37
2 37 52
2 42 33
2 34 50
2 34 44
2 48 34
2 38 44
2 35 51
2 35 45
2 49 35
2 39 45
2 53 59
2 59 56
2 56 53
2 56 62
2 62 53
2 53 61
2 62 73
2 73 53
2 73 61
2 54 55
2 55 60
2 60 54
2 54 64
2 64 55
2 54 57
2 57 73
2 73 54
2 73 58
2 58 54
2 54 63
2 71 55
2 55 69
2 66 55
2 66 60
2 56 72
2 56 65
2 70 56
2 59 65
3 32 38 34
3 33 39 35
3 32 34 40
3 33 35 43
3 8 9 36
3 16 17 37
3 33 52 36
3 33 37 52
3 18 19 38
3 10 11 39
3 34 50 40
3 35 51 43
3 8 36 40
3 16 37 43
3 33 43 37
3 17 41 37
3 9 42 36
3 33 36 42
3 32 41 38
3 33 42 39
3 18 38 41
3 10 39 42
3 36 52 40
3 37 41 52
3 32 40 52
3 32 52 41
3 19 46 38
3 11 47 39
3 0 12 47
3 4 20 46
3 34 44 48
3 35 45 49
3 21 48 44
3 13 49 45
3 7 8 40
3 9 10 42
3 17 18 41
3 15 16 43
3 34 38 44
3 35 39 45
3 0 47 11
3 4 46 19
3 5 48 21
3 1 49 13
3 12 13 45
3 20 21 44
3 5 6 48
3 1 14 49
3 7 40 50
3 15 43 51
3 6 7 50
3 14 15 51
3 6 50 48
3 14 51 49
3 38 46 44
3 39 47 45
3 12 45 47
3 20 44 46
3 34 48 50
3 35 49 51
3 53 59 56
3 54 55 60
3 54 64 55
3 53 56 62
3 16 57 17
3 26 27 58
3 54 57 73
3 54 73 58
3 14 59 15
3 18 60 19
3 55 64 71
3 56 72 62
3 16 61 57
3 26 58 62
3 54 63 57
3 54 58 64
3 17 57 63
3 27 64 58
3 54 60 63
3 53 61 59
3 15 59 61
3 18 63 60
3 57 61 73
3 58 73 62
3 53 62 73
3 53 73 61
3 14 67 59
3 19 60 68
3 4 68 31
3 1 22 67
3 55 69 66
3 56 65 70
3 30 66 69
3 23 70 65
3 15 61 16
3 25 26 62
3 17 63 18
3 27 28 64
3 56 59 65
3 55 66 60
3 1 67 14
3 4 19 68
3 2 70 23
3 3 30 69
3 30 31 66
3 22 23 65
3 3 69 29
3 2 24 70
3 25 62 72
3 28 71 64
3 28 29 71
3 24 25 72
3 24 72 70
3 29 69 71
3 59 67 65
3 60 66 68
3 31 68 66
3 22 65 67
3 55 71 69
3 56 70 72
CELL_TYPES 313
3
3
3
3
3
3
3
3
3
3
3
3
3
3
3
3
3
3
3
3
3
3
3
3
3
3
3
3
3
3
3
3
3
3
3
3
3
3
3
3
3
3
3
3
3
3
3
3
3
3
3
3
3
3
3
3
3
3
3
3
3
3
3
3
3
3
3
3
3
3
3
3
3
3
3
3
3
3
3
3
3
3
3
3
3
3
3
3
3
3
3
3
3
3
3
3
3
3
3
3
3
3
3
3
3
3
3
3
3
3
3
3
3
3
3
3
3
3
3
3
3
3
3
3
3
3
3
3
3
3
3
3
3
3
3
3
3
3
3
3
3
3
3
3
3
3
3
3
3
3
3
3
3
3
3
3
3
3
3
3
3
3
3
3
3
3
3
3
3
3
3
3
3
3
3
3
3
3
3
3
3
3
3
3
3
3
3
3
3
3
3
3
3
5
5
5
5
5
5
5
5
5
5
5
5
5
5
5
5
5
5
5
5
5
5
5
5
5
5
5
5
5
5
5
5
5
5
5
5
5
5
5
5
5
5
5
5
5
5
5
5
5
5
5
5
5
5
5
5
5
5
5
5
5
5
5
5
5
5
5
5
5
5
5
5
5
5
5
5
5
5
5
5
5
5
5
5
5
5
5
5
5
5
5
5
5
5
5
5
5
5
5
5
5
5
5
5
5
5
5
5
5
5
5
5
5
5
5
5
5
5
5
5
POINT_DATA 74
SCALARS GLOBAL_ID int 1
LOOKUP_TABLE default
1 
2 
3 
4 
5 
6 
7 
8 
9 
10 
11 
12 
13 
14 
15 
16 
17 
18 
19 
20 
21 
22 
23 
24 
25 
26 
27 
28 
29 
30 
31 
32 
33 
34 
35 
36 
37 
38 
39 
40 
41 
42 
43 
44 
45 
46 
47 
48 
49 
50 
51 
52 
53 
54 
55 
56 
57 
58 
59 
60 
61 
62 
63 
64 
65 
66 
67 
68 
69 
70 
71 
72 
73 
74 
SCALARS Dirichlet double 1
LOOKUP_TABLE default
1 
0 
0 
0 
0 
1 
1 
1 
1 
1 
1 
1 
0 
0 
0 
0 
0 
0 
0 
0 
0 
0 
0 
0 
0 
0 
0 
0 
0 
0 
0 
0 
0 
0 
0 
0 
0 
0 
0 
0 
0 
0 
0 
0 
0 
0 
0 
0 
0 
0 
0 
0 
0 
0 
0 
0 
0 
0 
0 
0 
0 
0 
0 
0 
0 
0 
0 
0 
0 
0 
0 
0 
0 
0 
SCALARS Neumann double 1
LOOKUP_TABLE default
0 
0 
0 
0 
0 
0 
0 
0 
0 
0 
0 
0 
0 
0 
0 
0 
0 
0 
0 
0 
0 
0 
0 
0 
0 
0 
0 
0 
0 
0 
0 
0 
0 
0 
0 
0 
0 
0 
0 
0 
0 
0 
0 
0 
0 
0 
0 
0 
0 
0 
0 
0 
0 
0 
0 
0 
0 
0 
0 
0 
0 
0 
0 
0 
0 
0 
0 
0 
0 
0 
0 
0 
0 
0 
CELL_DATA 313
SCALARS GLOBAL_ID int 1
LOOKUP_TABLE default
5 
6 
7 
8 
9 
10 
11 
12 
13 
14 
15 
16 
17 
18 
19 
20 
21 
22 
23 
24 
25 
26 
27 
28 
29 
30 
0 
0 
0 
0 
0 
0 
0 
0 
0 
0 
0 
0 
0 
0 
0 
0 
0 
0 
0 
0 
0 
0 
0 
0 
0 
0 
0 
0 
0 
0 
0 
0 
0 
0 
0 
0 
0 
0 
0 
0 
0 
0 
0 
0 
0 
0 
0 
0 
0 
0 
0 
0 
0 
0 
0 
0 
0 
0 
0 
0 
0 
0 
0 
0 
0 
0 
0 
0 
0 
0 
0 
0 
0 
0 
0 
0 
0 
0 
0 
0 
0 
0 
0 
0 
0 
0 
0 
0 
0 
0 
0 
0 
0 
0 
0 
0 
0 
0 
0 
0 
0 
0 
0 
0 
0 
0 
0 
0 
0 
0 
0 
0 
0 
0 
0 
0 
0 
0 
0 
0 
0 
0 
0 
0 
0 
0 
0 
0 
0 
0 
0 
0 
0 
0 
0 
0 
0 
0 
0 
0 
0 
0 
0 
0 
0 
0 
0 
0 
0 
0 
0 
0 
0 
0 
0 
0 
0 
0 
0 
0 
0 
0 
0 
0 
0 
0 
0 
31 
32 
33 
34 
35 
36 
37 
38 
39 
40 
41 
42 
43 
44 
45 
46 
47 
48 
49 
50 
51 
52 
53 
54 
55 
56 
57 
58 
59 
60 
61 
62 
63 
64 
65 
66 
67 
68 
69 
70 
71 
72 
73 
74 
75 
76 
77 
78 
79 
80 
81 
82 
83 
84 
85 
86 
87 
88 
89 
90 
91 
92 
93 
94 
95 
96 
97 
98 
99 
100 
101 
102 
103 
104 
105 
106 
107 
108 
109 
110 
111 
112 
113 
114 
115 
116 
117 
118 
119 
120 
121 
122 
123 
124 
125 
126 
127 
128 
129 
130 
131 
132 
133 
134 
135 
136 
137 
138 
139 
140 
141 
142 
143 
144 
145 
146 
147 
148 
149 
150 
SCALARS Dirichlet double 1
LOOKUP_TABLE default
1 
1 
1 
1 
1 
1 
1 
0 
0 
0 
0 
0 
0 
0 
0 
0 
0 
0 
0 
0 
0 
0 
0 
0 
0 
0 
0 
0 
0 
0 
0 
0 
0 
0 
0 
0 
0 
0 
0 
0 
0 
0 
0 
0 
0 
0 
0 
0 
0 
0 
0 
0 
0 
0 
0 
0 
0 
0 
0 
0 
0 
0 
0 
0 
0 
0 
0 
0 
0 
0 
0 
0 
0 
0 
0 
0 
0 
0 
0 
0 
0 
0 
0 
0 
0 
0 
0 
0 
0 
0 
0 
0 
0 
0 
0 
0 
0 
0 
0 
0 
0 
0 
0 
0 
0 
0 
0 
0 
0 
0 
0 
0 
0 
0 
0 
0 
0 
0 
0 
0 
0 
0 
0 
0 
0 
0 
0 
0 
0 
0 
0 
0 
0 
0 
0 
0 
0 
0 
0 
0 
0 
0 
0 
0 
0 
0 
0 
0 
0 
0 
0 
0 
0 
0 
0 
0 
0 
0 
0 
0 
0 
0 
0 
0 
0 
0 
0 
0 
0 
0 
0 
0 
0 
0 
0 
0 
0 
0 
0 
0 
0 
0 
0 
0 
0 
0 
0 
0 
0 
0 
0 
0 
0 
0 
0 
0 
0 
0 
0 
0 
0 
0 
0 
0 
0 
0 
0 
0 
0 
0 
0 
0 
0 
0 
0 
0 
0 
0 
0 
0 
0 
0 
0 
0 
0 
0 
0 
0 
0 
0 
0 
0 
0 
0 
0 
0 
0 
0 
0 
0 
0 
0 
0 
0 
0 
0 
0 
0 
0 
0 
0 
0 
0 
0 
0 
0 
0 
0 
0 
0 
0 
0 
0 
0 
0 
0 
0 
0 
0 
0 
0 
0 
0 
0 
0 
0 
0 
0 
0 
0 
0 
0 
0 
0 
0 
0 
0 
0 
0 
0 
0 
0 
0 
0 
0 
0 
0 
0 
0 
0 
0 
0 
0 
0 
0 
0 
0 
0 
0 
0 
0 
0 
0 
SCALARS Neumann double 1
LOOKUP_TABLE default
0 
0 
0 
0 
0 
0 
0 
0 
0 
0 
0 
0 
0 
0 
0 
0 
0 
0 
0 
0 
0 
0 
0 
0 
0 
0 
0 
0 
0 
0 
0 
0 
0 
0 
0 
0 
0 
0 
0 
0 
0 
0 
0 
0 
0 
0 
0 
0 
0 
0 
0 
0 
0 
0 
0 
0 
0 
0 
0 
0 
0 
0 
0 
0 
0 
0 
0 
0 
0 
0 
0 
0 
0 
0 
0 
0 
0 
0 
0 
0 
0 
0 
0 
0 
0 
0 
0 
0 
0 
0 
0 
0 
0 
0 
0 
0 
0 
0 
0 
0 
0 
0 
0 
0 
0 
0 
0 
0 
0 
0 
0 
0 
0 
0 
0 
0 
0 
0 
0 
0 
0 
0 
0 
0 
0 
0 
0 
0 
0 
0 
0 
0 
0 
0 
0 
0 
0 
0 
0 
0 
0 
0 
0 
0 
0 
0 
0 
0 
0 
0 
0 
0 
0 
0 
0 
0 
0 
0 
0 
0 
0 
0 
0 
0 
0 
0 
0 
0 
0 
0 
0 
0 
0 
0 
0 
0 
0 
0 
0 
0 
0 
0 
0 
0 
0 
0 
0 
0 
0 
0 
0 
0 
0 
0 
0 
0 
0 
0 
0 
0 
0 
0 
0 
0 
0 
0 
0 
0 
0 
0 
0 
0 
0 
0 
0 
0 
0 
0 
0 
0 
0 
0 
0 
0 
0 
0 
0 
0 
0 
0 
0 
0 
0 
0 
0 
0 
0 
0 
0 
0 
0 
0 
0 
0 
0 
0 
0 
0 
0 
0 
0 
0 
0 
0 
0 
0 
0 
0 
0 
0 
0 
0 
0 
0 
0 
0 
0 
0 
0 
0 
0 
0 
0 
0 
0 
0 
0 
0 
0 
0 
0 
0 
0 
0 
0 
0 
0 
0 
0 
0 
0 
0 
0 
0 
0 
0 
0 
0 
0 
0 
0 
0 
0 
0 
0 
0 
0 
0 
0 
0 
0 
0 
0 
TENSORS Permeability double
0 0 0 0 0 0 0 0 0 
0 0 0 0 0 0 0 0 0 
0 0 0 0 0 0 0 0 0 
0 0 0 0 0 0 0 0 0 
0 0 0 0 0 0 0 0 0 
0 0 0 0 0 0 0 0 0 
0 0 0 0 0 0 0 0 0 
0 0 0 0 0 0 0 0 0 
0 0 0 0 0 0 0 0 0 
0 0 0 0 0 0 0 0 0 
0 0 0 0 0 0 0 0 0 
0 0 0 0 0 0 0 0 0 
0 0 0 0 0 0 0 0 0 
0 0 0 0 0 0 0 0 0 
0 0 0 0 0 0 0 0 0 
0 0 0 0 0 0 0 0 0 
0 0 0 0 0 0 0 0 0 
0 0 0 0 0 0 0 0 0 
0 0 0 0 0 0 0 0 0 
0 0 0 0 0 0 0 0 0 
0 0 0 0 0 0 0 0 0 
0 0 0 0 0 0 0 0 0 
0 0 0 0 0 0 0 0 0 
0 0 0 0 0 0 0 0 0 
0 0 0 0 0 0 0 0 0 
0 0 0 0 0 0 0 0 0 
0 0 0 0 0 0 0 0 0 
0 0 0 0 0 0 0 0 0 
0 0 0 0 0 0 0 0 0 
0 0 0 0 0 0 0 0 0 
0 0 0 0 0 0 0 0 0 
0 0 0 0 0 0 0 0 0 
0 0 0 0 0 0 0 0 0 
0 0 0 0 0 0 0 0 0 
0 0 0 0 0 0 0 0 0 
0 0 0 0 0 0 0 0 0 
0 0 0 0 0 0 0 0 0 
0 0 0 0 0 0 0 0 0 
0 0 0 0 0 0 0 0 0 
0 0 0 0 0 0 0 0 0 
0 0 0 0 0 0 0 0 0 
0 0 0 0 0 0 0 0 0 
0 0 0 0 0 0 0 0 0 
0 0 0 0 0 0 0 0 0 
0 0 0 0 0 0 0 0 0 
0 0 0 0 0 0 0 0 0 
0 0 0 0 0 0 0 0 0 
0 0 0 0 0 0 0 0 0 
0 0 0 0 0 0 0 0 0 
0 0 0 0 0 0 0 0 0 
0 0 0 0 0 0 0 0 0 
0 0 0 0 0 0 0 0 0 
0 0 0 0 0 0 0 0 0 
0 0 0 0 0 0 0 0 0 
0 0 0 0 0 0 0 0 0 
0 0 0 0 0 0 0 0 0 
0 0 0 0 0 0 0 0 0 
0 0 0 0 0 0 0 0 0 
0 0 0 0 0 0 0 0 0 
0 0 0 0 0 0 0 0 0 
0 0 0 0 0 0 0 0 0 
0 0 0 0 0 0 0 0 0 
0 0 0 0 0 0 0 0 0 
0 0 0 0 0 0 0 0 0 
0 0 0 0 0 0 0 0 0 
0 0 0 0 0 0 0 0 0 
0 0 0 0 0 0 0 0 0 
0 0 0 0 0 0 0 0 0 
0 0 0 0 0 0 0 0 0 
0 0 0 0 0 0 0 0 0 
0 0 0 0 0 0 0 0 0 
0 0 0 0 0 0 0 0 0 
0 0 0 0 0 0 0 0 0 
0 0 0 0 0 0 0 0 0 
0 0 0 0 0 0 0 0 0 
0 0 0 0 0 0 0 0 0 
0 0 0 0 0 0 0 0 0 
0 0 0 0 0 0 0 0 0 
0 0 0 0 0 0 0 0 0 
0 0 0 0 0 0 0 0 0 
0 0 0 0 0 0 0 0 0 
0 0 0 0 0 0 0 0 0 
0 0 0 0 0 0 0 0 0 
0 0 0 0 0 0 0 0 0 
0 0 0 0 0 0 0 0 0 
0 0 0 0 0 0 0 0 0 
0 0 0 0 0 0 0 0 0 
0 0 0 0 0 0 0 0 0 
0 0 0 0 0 0 0 0 0 
0 0 0 0 0 0 0 0 0 
0 0 0 0 0 0 0 0 0 
0 0 0 0 0 0 0 0 0 
0 0 0 0 0 0 0 0 0 
0 0 0 0 0 0 0 0 0 
0 0 0 0 0 0 0 0 0 
0 0 0 0 0 0 0 0 0 
0 0 0 0 0 0 0 0 0 
0 0 0 0 0 0 0 0 0 
0 0 0 0 0 0 0 0 0 
0 0 0 0 0 0 0 0 0 
0 0 0 0 0 0 0 0 0 
0 0 0 0 0 0 0 0 0 
0 0 0 0 0 0 0 0 0 
0 0 0 0 0 0 0 0 0 
0 0 0 0 0 0 0 0 0 
0 0 0 0 0 0 0 0 0 
0 0 0 0 0 0 0 0 0 
0 0 0 0 0 0 0 0 0 
0 0 0 0 0 0 0 0 0 
0 0 0 0 0 0 0 0 0 
0 0 0 0 0 0 0 0 0 
0 0 0 0 0 0 0 0 0 
0 0 0 0 0 0 0 0 0 
0 0 0 0 0 0 0 0 0 
0 0 0 0 0 0 0 0 0 
0 0 0 0 0 0 0 0 0 
0 0 0 0 0 0 0 0 0 
0 0 0 0 0 0 0 0 0 
0 0 0 0 0 0 0 0 0 
0 0 0 0 0 0 0 0 0 
0 0 0 0 0 0 0 0 0 
0 0 0 0 0 0 0 0 0 
0 0 0 0 0 0 0 0 0 
0 0 0 0 0 0 0 0 0 
0 0 0 0 0 0 0 0 0 
0 0 0 0 0 0 0 0 0 
0 0 0 0 0 0 0 0 0 
0 0 0 0 0 0 0 0 0 
0 0 0 0 0 0 0 0 0 
0 0 0 0 0 0 0 0 0 
0 0 0 0 0 0 0 0 0 
0 0 0 0 0 0 0 0 0 
0 0 0 0 0 0 0 0 0 
0 0 0 0 0 0 0 0 0 
0 0 0 0 0 0 0 0 0 
0 0 0 0 0 0 0 0 0 
0 0 0 0 0 0 0 0 0 
0 0 0 0 0 0 0 0 0 
0 0 0 0 0 0 0 0 0 
0 0 0 0 0 0 0 0 0 
0 0 0 0 0 0 0 0 0 
0 0 0 0 0 0 0 0 0 
0 0 0 0 0 0 0 0 0 
0 0 0 0 0 0 0 0 0 
0 0 0 0 0 0 0 0 0 
0 0 0 0 0 0 0 0 0 
0 0 0 0 0 0 0 0 0 
0 0 0 0 0 0 0 0 0 
0 0 0 0 0 0 0 0 0 
0 0 0 0 0 0 0 0 0 
0 0 0 0 0 0 0 0 0 
0 0 0 0 0 0 0 0 0 
0 0 0 0 0 0 0 0 0 
0 0 0 0 0 0 0 0 0 
0 0 0 0 0 0 0 0 0 
0 0 0 0 0 0 0 0 0 
0 0 0 0 0 0 0 0 0 
0 0 0 0 0 0 0 0 0 
0 0 0 0 0 0 0 0 0 
0 0 0 0 0 0 0 0 0 
0 0 0 0 0 0 0 0 0 
0 0 0 0 0 0 0 0 0 
0 0 0 0 0 0 0 0 0 
0 0 0 0 0 0 0 0 0 
0 0 0 0 0 0 0 0 0 
0 0 0 0 0 0 0 0 0 
0 0 0 0 0 0 0 0 0 
0 0 0 0 0 0 0 0 0 
0 0 0 0 0 0 0 0 0 
0 0 0 0 0 0 0 0 0 
0 0 0 0 0 0 0 0 0 
0 0 0 0 0 0 0 0 0 
0 0 0 0 0 0 0 0 0 
0 0 0 0 0 0 0 0 0 
0 0 0 0 0 0 0 0 0 
0 0 0 0 0 0 0 0 0 
0 0 0 0 0 0 0 0 0 
0 0 0 0 0 0 0 0 0 
0 0 0 0 0 0 0 0 0 
0 0 0 0 0 0 0 0 0 
0 0 0 0 0 0 0 0 0 
0 0 0 0 0 0 0 0 0 
0 0 0 0 0 0 0 0 0 
0 0 0 0 0 0 0 0 0 
0 0 0 0 0 0 0 0 0 
0 0 0 0 0 0 0 0 0 
0 0 0 0 0 0 0 0 0 
0 0 0 0 0 0 0 0 0 
0 0 0 0 0 0 0 0 0 
0 0 0 0 0 0 0 0 0 
0 0 0 0 0 0 0 0 0 
0 0 0 0 0 0 0 0 0 
0 0 0 0 0 0 0 0 0 
2 0 0 0 2 0 0 0 2 
2 0 0 0 2 0 0 0 2 
2 0 0 0 2 0 0 0 2 
2 0 0 0 2 0 0 0 2 
2 0 0 0 2 0 0 0 2 
2 0 0 0 2 0 0 0 2 
2 0 0 0 2 0 0 0 2 
2 0 0 0 2 0 0 0 2 
2 0 0 0 2 0 0 0 2 
2 0 0 0 2 0 0 0 2 
2 0 0 0 2 0 0 0 2 
2 0 0 0 2 0 0 0 2 
2 0 0 0 2 0 0 0 2 
2 0 0 0 2 0 0 0 2 
2 0 0 0 2 0 0 0 2 
2 0 0 0 2 0 0 0 2 
2 0 0 0 2 0 0 0 2 
2 0 0 0 2 0 0 0 2 
2 0 0 0 2 0 0 0 2 
2 0 0 0 2 0 0 0 2 
2 0 0 0 2 0 0 0 2 
2 0 0 0 2 0 0 0 2 
2 0 0 0 2 0 0 0 2 
2 0 0 0 2 0 0 0 2 
2 0 0 0 2 0 0 0 2 
2 0 0 0 2 0 0 0 2 
2 0 0 0 2 0 0 0 2 
2 0 0 0 2 0 0 0 2 
2 0 0 0 2 0 0 0 2 
2 0 0 0 2 0 0 0 2 
2 0 0 0 2 0 0 0 2 
2 0 0 0 2 0 0 0 2 
2 0 0 0 2 0 0 0 2 
2 0 0 0 2 0 0 0 2 
2 0 0 0 2 0 0 0 2 
2 0 0 0 2 0 0 0 2 
2 0 0 0 2 0 0 0 2 
2 0 0 0 2 0 0 0 2 
2 0 0 0 2 0 0 0 2 
2 0 0 0 2 0 0 0 2 
2 0 0 0 2 0 0 0 2 
2 0 0 0 2 0 0 0 2 
2 0 0 0 2 0 0 0 2 
2 0 0 0 2 0 0 0 2 
2 0 0 0 2 0 0 0 2 
2 0 0 0 2 0 0 0 2 
2 0 0 0 2 0 0 0 2 
2 0 0 0 2 0 0 0 2 
2 0 0 0 2 0 0 0 2 
2 0 0 0 2 0 0 0 2 
2 0 0 0 2 0 0 0 2 
2 0 0 0 2 0 0 0 2 
2 0 0 0 2 0 0 0 2 
2 0 0 0 2 0 0 0 2 
2 0 0 0 2 0 0 0 2 
2 0 0 0 2 0 0 0 2 
2 0 0 0 2 0 0 0 2 
2 0 0 0 2 0 0 0 2 
2 0 0 0 2 0 0 0 2 
2 0 0 0 2 0 0 0 2 
1 0 0 0 1 0 0 0 1 
1 0 0 0 1 0 0 0 1 
1 0 0 0 1 0 0 0 1 
1 0 0 0 1 0 0 0 1 
1 0 0 0 1 0 0 0 1 
1 0 0 0 1 0 0 0 1 
1 0 0 0 1 0 0 0 1 
1 0 0 0 1 0 0 0 1 
1 0 0 0 1 0 0 0 1 
1 0 0 0 1 0 0 0 1 
1 0 0 0 1 0 0 0 1 
1 0 0 0 1 0 0 0 1 
1 0 0 0 1 0 0 0 1 
1 0 0 0 1 0 0 0 1 
1 0 0 0 1 0 0 0 1 
1 0 0 0 1 0 0 0 1 
1 0 0 0 1 0 0 0 1 
1 0 0 0 1 0 0 0 1 
1 0 0 0 1 0 0 0 1 
1 0 0 0 1 0 0 0 1 
1 0 0 0 1 0 0 0 1 
1 0 0 0 1 0 0 0 1 
1 0 0 0 1 0 0 0 1 
1 0 0 0 1 0 0 0 1 
1 0 0 0 1 0 0 0 1 
1 0 0 0 1 0 0 0 1 
1 0 0 0 1 0 0 0 1 
1 0 0 0 1 0 0 0 1 
1 0 0 0 1 0 0 0 1 
1 0 0 0 1 0 0 0 1 
1 0 0 0 1 0 0 0 1 
1 0 0 0 1 0 0 0 1 
1 0 0 0 1 0 0 0 1 
1 0 0 0 1 0 0 0 1 
1 0 0 0 1 0 0 0 1 
1 0 0 0 1 0 0 0 1 
1 0 0 0 1 0 0 0 1 
1 0 0 0 1 0 0 0 1 
1 0 0 0 1 0 0 0 1 
1 0 0 0 1 0 0 0 1 
1 0 0 0 1 0 0 0 1 
1 0 0 0 1 0 0 0 1 
1 0 0 0 1 0 0 0 1 
1 0 0 0 1 0 0 0 1 
1 0 0 0 1 0 0 0 1 
1 0 0 0 1 0 0 0 1 
1 0 0 0 1 0 0 0 1 
1 0 0 0 1 0 0 0 1 
1 0 0 0 1 0 0 0 1 
1 0 0 0 1 0 0 0 1 
1 0 0 0 1 0 0 0 1 
1 0 0 0 1 0 0 0 1 
1 0 0 0 1 0 0 0 1 
1 0 0 0 1 0 0 0 1 
1 0 0 0 1 0 0 0 1 
1 0 0 0 1 0 0 0 1 
1 0 0 0 1 0 0 0 1 
1 0 0 0 1 0 0 0 1 
1 0 0 0 1 0 0 0 1 
1 0 0 0 1 0 0 0 1 
SCALARS Pressure double 1
LOOKUP_TABLE default
0 
0 
0 
0 
0 
0 
0 
0 
0 
0 
0 
0 
0 
0 
0 
0 
0 
0 
0 
0 
0 
0 
0 
0 
0 
0 
0 
0 
0 
0 
0 
0 
0 
0 
0 
0 
0 
0 
0 
0 
0 
0 
0 
0 
0 
0 
0 
0 
0 
0 
0 
0 
0 
0 
0 
0 
0 
0 
0 
0 
0 
0 
0 
0 
0 
0 
0 
0 
0 
0 
0 
0 
0 
0 
0 
0 
0 
0 
0 
0 
0 
0 
0 
0 
0 
0 
0 
0 
0 
0 
0 
0 
0 
0 
0 
0 
0 
0 
0 
0 
0 
0 
0 
0 
0 
0 
0 
0 
0 
0 
0 
0 
0 
0 
0 
0 
0 
0 
0 
0 
0 
0 
0 
0 
0 
0 
0 
0 
0 
0 
0 
0 
0 
0 
0 
0 
0 
0 
0 
0 
0 
0 
0 
0 
0 
0 
0 
0 
0 
0 
0 
0 
0 
0 
0 
0 
0 
0 
0 
0 
0 
0 
0 
0 
0 
0 
0 
0 
0 
0 
0 
0 
0 
0 
0 
0 
0 
0 
0 
0 
0 
0 
0 
0 
0 
0 
0 
0 
0 
0 
0 
0 
0 
0.8205393608 
0.8463847938 
0.8728174089 
0.7909172231 
0.9731246096 
0.693835116 
0.8631424521 
0.8060751807 
0.6988514227 
0.9684830145 
0.9112181476 
0.7519493693 
0.9464763027 
0.717961671 
0.7743964035 
0.7220406942 
0.9496833007 
0.8950069221 
0.7813817085 
0.890365327 
0.7270570008 
0.9450417056 
0.8911705237 
0.7778460263 
0.8612595107 
0.8050022846 
0.7230028557 
0.9442632107 
0.9387431591 
0.7278551368 
0.872907755 
0.7938089788 
0.8796185987 
0.7871567469 
0.973351693 
0.9765586911 
0.6948722448 
0.6907932216 
0.8199237086 
0.8474536433 
0.9757801961 
0.6908180997 
0.9370206543 
0.7296531648 
0.8352813598 
0.8314868333 
0.9740576913 
0.6926161278 
0.9549660283 
0.7082601003 
0.9816143353 
0.6841335454 
0.9556720266 
0.7100830065 
0.7767119113 
0.8906556816 
0.88513563 
0.7815641923 
0.9119241459 
0.7537722755 
0.3589212784 
0.3594362543 
0.2485011129 
0.2543956964 
0.6129158859 
0.05433689876 
0.392755322 
0.2786207793 
0.6022971547 
0.6036326957 
0.1705654052 
0.1775973328 
0.556602416 
0.107664027 
0.4566805109 
0.2154594738 
0.566033268 
0.1025900086 
0.4473973207 
0.4373342693 
0.5459836848 
0.5567500778 
0.4457946092 
0.2190784424 
0.2783143504 
0.3908959745 
0.5539942885 
0.555193088 
0.5441529849 
0.5442897265 
0.2542846242 
0.25418449 
0.2409801604 
0.2407628026 
0.6103531968 
0.0533271282 
0.6197840488 
0.04825310987 
0.3601525829 
0.3615739532 
0.6183638005 
0.6182270589 
0.1259586914 
0.1259729963 
0.3372293863 
0.3370263334 
0.05189892224 
0.05188461736 
0.09010157134 
0.08318686732 
0.03493375745 
0.03677444314 
0.0886590605 
0.0868326797 
0.4465761775 
0.4479780298 
0.4369379267 
0.4368716154 
0.1742112176 
0.176154822 
