# vtk DataFile Version 3.0
MOAB 5.0.1
ASCII
DATASET UNSTRUCTURED_GRID
POINTS 7 double
0 0 0
1 0 0
1 1 0
0 1 0
0 0.5 0
0.5 0 0
0.4371279762 0.4371279762 0
CELLS 12 42
2 3 4
2 4 0
2 0 5
2 5 1
2 1 2
2 2 3
2 4 6
2 6 2
2 6 5
4 2 3 4 6
4 2 6 5 1
4 6 4 0 5
CELL_TYPES 12
3
3
3
3
3
3
3
3
3
9
9
9
POINT_DATA 7
SCALARS GLOBAL_ID int 1
LOOKUP_TABLE default
1 
2 
3 
4 
5 
6 
7 
SCALARS dirichlet double 1
LOOKUP_TABLE default
1 
0 
0 
1 
1 
0 
0 
SCALARS neumann double 1
LOOKUP_TABLE default
0 
0 
0 
0 
0 
0 
0 
CELL_DATA 12
SCALARS GLOBAL_ID int 1
LOOKUP_TABLE default
5 
6 
7 
8 
9 
10 
0 
0 
0 
11 
12 
13 
SCALARS pressure double 1
LOOKUP_TABLE default
0 
0 
0 
0 
0 
0 
0 
0 
0 
0.6141891115 
0.234239893 
0.7709573413 
SCALARS dirichlet double 1
LOOKUP_TABLE default
1 
1 
0 
0 
0 
0 
0 
0 
0 
0 
0 
0 
SCALARS neumann double 1
LOOKUP_TABLE default
0 
0 
0 
0 
0 
0 
0 
0 
0 
0 
0 
0 
TENSORS PERM double
0 0 0 0 0 0 0 0 0 
0 0 0 0 0 0 0 0 0 
0 0 0 0 0 0 0 0 0 
0 0 0 0 0 0 0 0 0 
0 0 0 0 0 0 0 0 0 
0 0 0 0 0 0 0 0 0 
0 0 0 0 0 0 0 0 0 
0 0 0 0 0 0 0 0 0 
0 0 0 0 0 0 0 0 0 
1 0 0 0 1 0 0 0 1 
1 0 0 0 1 0 0 0 1 
1 0 0 0 1 0 0 0 1 
